M 0.00000 1 (82.18, 179.27, 0.00), (160.10, 82.75), 14.40
M 0.00000 2 (120.17, 66.36, 0.00), (113.77, 79.69), 1.62
M 0.00000 3 (53.41, 110.20, 0.00), (142.24, 11.99), 6.20
M 0.00000 4 (61.22, 34.89, 0.00), (36.09, 52.11), 7.00
M 0.00000 5 (148.30, 81.42, 0.00), (196.57, 174.39), 1.91
M 0.00000 6 (138.38, 16.41, 0.00), (53.39, 43.94), 16.79
M 0.00000 7 (80.83, 67.92, 0.00), (61.71, 6.14), 19.45
M 0.00000 8 (92.88, 127.33, 0.00), (176.74, 110.95), 5.20
M 0.00000 9 (164.05, 132.27, 0.00), (83.79, 151.33), 7.50
M 0.00000 10 (154.33, 158.89, 0.00), (141.91, 97.21), 8.07
s 0.000000000 _1_ AGT  --- 0 tcp 40 [0 0 0 0] ------- [1:0 0:0 32 0] [0 0] 0 0
s 0.000000000 _2_ AGT  --- 1 tcp 40 [0 0 0 0] ------- [2:0 0:1 32 0] [0 0] 0 0
s 0.000000000 _3_ AGT  --- 2 tcp 40 [0 0 0 0] ------- [3:0 0:2 32 0] [0 0] 0 0
s 0.000000000 _4_ AGT  --- 3 tcp 40 [0 0 0 0] ------- [4:0 0:3 32 0] [0 0] 0 0
s 0.000000000 _5_ AGT  --- 4 tcp 40 [0 0 0 0] ------- [5:0 0:4 32 0] [0 0] 0 0
s 0.000000000 _6_ AGT  --- 5 tcp 40 [0 0 0 0] ------- [6:0 0:5 32 0] [0 0] 0 0
s 0.000000000 _7_ AGT  --- 6 tcp 40 [0 0 0 0] ------- [7:0 0:6 32 0] [0 0] 0 0
s 0.000000000 _8_ AGT  --- 7 tcp 40 [0 0 0 0] ------- [8:0 0:7 32 0] [0 0] 0 0
s 0.000000000 _9_ AGT  --- 8 tcp 40 [0 0 0 0] ------- [9:0 0:8 32 0] [0 0] 0 0
s 0.000000000 _10_ AGT  --- 9 tcp 40 [0 0 0 0] ------- [10:0 0:9 32 0] [0 0] 0 0
r 0.643871147 _0_ AGT  --- 0 tcp 80 [13a 0 1 800] ------- [1:0 0:0 32 0] [0 0] 1 0
r 0.647905209 _0_ AGT  --- 5 tcp 80 [13a 0 6 800] ------- [6:0 0:5 32 0] [0 0] 1 0
r 0.651938446 _0_ AGT  --- 9 tcp 80 [13a 0 a 800] ------- [10:0 0:9 32 0] [0 0] 1 0
r 0.654342806 _0_ AGT  --- 7 tcp 80 [13a 0 8 800] ------- [8:0 0:7 32 0] [0 0] 1 0
r 0.659056166 _0_ AGT  --- 8 tcp 80 [13a 0 9 800] ------- [9:0 0:8 32 0] [0 0] 1 0
s 3.000000000 _1_ AGT  --- 21 tcp 40 [0 0 0 0] ------- [1:0 0:0 32 0] [0 0] 0 0
s 3.000000000 _2_ AGT  --- 22 tcp 40 [0 0 0 0] ------- [2:0 0:1 32 0] [0 0] 0 0
D 3.000000000 _2_ IFQ  ARP 1 tcp 80 [0 0 2 800] ------- [2:0 0:1 32 0] [0 0] 0 0
s 3.000000000 _3_ AGT  --- 23 tcp 40 [0 0 0 0] ------- [3:0 0:2 32 0] [0 0] 0 0
D 3.000000000 _3_ IFQ  ARP 2 tcp 80 [0 0 3 800] ------- [3:0 0:2 32 0] [0 0] 0 0
s 3.000000000 _4_ AGT  --- 24 tcp 40 [0 0 0 0] ------- [4:0 0:3 32 0] [0 0] 0 0
D 3.000000000 _4_ IFQ  ARP 3 tcp 80 [0 0 4 800] ------- [4:0 0:3 32 0] [0 0] 0 0
s 3.000000000 _5_ AGT  --- 25 tcp 40 [0 0 0 0] ------- [5:0 0:4 32 0] [0 0] 0 0
D 3.000000000 _5_ IFQ  ARP 4 tcp 80 [0 0 5 800] ------- [5:0 0:4 32 0] [0 0] 0 0
s 3.000000000 _6_ AGT  --- 26 tcp 40 [0 0 0 0] ------- [6:0 0:5 32 0] [0 0] 0 0
s 3.000000000 _7_ AGT  --- 27 tcp 40 [0 0 0 0] ------- [7:0 0:6 32 0] [0 0] 0 0
D 3.000000000 _7_ IFQ  ARP 6 tcp 80 [0 0 7 800] ------- [7:0 0:6 32 0] [0 0] 0 0
s 3.000000000 _8_ AGT  --- 28 tcp 40 [0 0 0 0] ------- [8:0 0:7 32 0] [0 0] 0 0
s 3.000000000 _9_ AGT  --- 29 tcp 40 [0 0 0 0] ------- [9:0 0:8 32 0] [0 0] 0 0
s 3.000000000 _10_ AGT  --- 30 tcp 40 [0 0 0 0] ------- [10:0 0:9 32 0] [0 0] 0 0
r 3.002922799 _0_ AGT  --- 26 tcp 60 [13a 0 6 800] ------- [6:0 0:5 32 0] [0 0] 1 0
r 3.005705710 _0_ AGT  --- 29 tcp 60 [13a 0 9 800] ------- [9:0 0:8 32 0] [0 0] 1 0
r 3.009498765 _0_ AGT  --- 25 tcp 60 [13a 0 5 800] ------- [5:0 0:4 32 0] [0 0] 1 0
r 3.012381883 _0_ AGT  --- 21 tcp 60 [13a 0 1 800] ------- [1:0 0:0 32 0] [0 0] 1 0
r 3.016103104 _0_ AGT  --- 30 tcp 60 [13a 0 a 800] ------- [10:0 0:9 32 0] [0 0] 1 0
r 3.019896652 _0_ AGT  --- 24 tcp 60 [13a 0 4 800] ------- [4:0 0:3 32 0] [0 0] 1 0
r 3.022000995 _0_ AGT  --- 28 tcp 60 [13a 0 8 800] ------- [8:0 0:7 32 0] [0 0] 1 0
r 3.025733682 _0_ AGT  --- 22 tcp 60 [13a 0 2 800] ------- [2:0 0:1 32 0] [0 0] 1 0
r 3.030086366 _0_ AGT  --- 23 tcp 60 [13a 0 3 800] ------- [3:0 0:2 32 0] [0 0] 1 0
M 3.32430 7 (61.71, 6.14, 0.00), (117.95, 31.75), 5.55
M 4.35200 4 (36.09, 52.11, 0.00), (45.28, 57.36), 9.23
M 5.32068 6 (53.39, 43.94, 0.00), (70.42, 76.34), 15.91
M 5.49816 4 (45.28, 57.36, 0.00), (66.47, 129.22), 6.51
M 7.62112 6 (70.42, 76.34, 0.00), (26.92, 146.01), 13.58
M 7.79834 10 (141.91, 97.21, 0.00), (90.62, 91.27), 5.07
M 8.61555 1 (160.10, 82.75, 0.00), (75.09, 114.28), 13.77
s 9.000000000 _1_ AGT  --- 31 tcp 40 [0 0 0 0] ------- [1:0 0:0 32 0] [0 0] 0 0
s 9.000000000 _2_ AGT  --- 32 tcp 40 [0 0 0 0] ------- [2:0 0:1 32 0] [0 0] 0 0
s 9.000000000 _3_ AGT  --- 33 tcp 40 [0 0 0 0] ------- [3:0 0:2 32 0] [0 0] 0 0
s 9.000000000 _4_ AGT  --- 34 tcp 40 [0 0 0 0] ------- [4:0 0:3 32 0] [0 0] 0 0
s 9.000000000 _5_ AGT  --- 35 tcp 40 [0 0 0 0] ------- [5:0 0:4 32 0] [0 0] 0 0
s 9.000000000 _6_ AGT  --- 36 tcp 40 [0 0 0 0] ------- [6:0 0:5 32 0] [0 0] 0 0
s 9.000000000 _7_ AGT  --- 37 tcp 40 [0 0 0 0] ------- [7:0 0:6 32 0] [0 0] 0 0
D 9.000000000 _7_ IFQ  ARP 27 tcp 60 [0 0 7 800] ------- [7:0 0:6 32 0] [0 0] 0 0
s 9.000000000 _8_ AGT  --- 38 tcp 40 [0 0 0 0] ------- [8:0 0:7 32 0] [0 0] 0 0
s 9.000000000 _9_ AGT  --- 39 tcp 40 [0 0 0 0] ------- [9:0 0:8 32 0] [0 0] 0 0
s 9.000000000 _10_ AGT  --- 40 tcp 40 [0 0 0 0] ------- [10:0 0:9 32 0] [0 0] 0 0
r 9.001720479 _0_ AGT  --- 39 tcp 60 [13a 0 9 800] ------- [9:0 0:8 32 0] [0 0] 1 0
r 9.003805016 _0_ AGT  --- 36 tcp 60 [13a 0 6 800] ------- [6:0 0:5 32 0] [0 0] 1 0
r 9.005829449 _0_ AGT  --- 33 tcp 60 [13a 0 3 800] ------- [3:0 0:2 32 0] [0 0] 1 0
r 9.007854022 _0_ AGT  --- 38 tcp 60 [13a 0 8 800] ------- [8:0 0:7 32 0] [0 0] 1 0
r 9.009878784 _0_ AGT  --- 31 tcp 60 [13a 0 1 800] ------- [1:0 0:0 32 0] [0 0] 1 0
r 9.011883484 _0_ AGT  --- 34 tcp 60 [13a 0 4 800] ------- [4:0 0:3 32 0] [0 0] 1 0
r 9.014007964 _0_ AGT  --- 40 tcp 60 [13a 0 a 800] ------- [10:0 0:9 32 0] [0 0] 1 0
r 9.018056953 _0_ AGT  --- 32 tcp 60 [13a 0 2 800] ------- [2:0 0:1 32 0] [0 0] 1 0
r 9.022430579 _0_ AGT  --- 37 tcp 60 [13a 0 7 800] ------- [7:0 0:6 32 0] [0 0] 1 0
r 9.024575331 _0_ AGT  --- 35 tcp 60 [13a 0 5 800] ------- [5:0 0:4 32 0] [0 0] 1 0
M 9.13413 2 (113.77, 79.69, 0.00), (108.27, 28.43), 14.97
M 10.99889 9 (83.79, 151.33, 0.00), (196.28, 47.64), 15.30
M 12.57671 2 (108.27, 28.43, 0.00), (196.06, 110.21), 16.38
M 13.67145 6 (26.92, 146.01, 0.00), (142.85, 64.46), 14.51
M 14.45940 7 (117.95, 31.75, 0.00), (131.75, 181.48), 18.52
M 15.19993 1 (75.09, 114.28, 0.00), (181.03, 150.84), 15.72
M 16.43006 8 (176.74, 110.95, 0.00), (130.55, 71.62), 18.60
M 17.01123 4 (66.47, 129.22, 0.00), (154.59, 27.09), 6.74
M 17.98798 10 (90.62, 91.27, 0.00), (136.53, 98.07), 18.99
M 19.69109 8 (130.55, 71.62, 0.00), (41.43, 53.72), 12.58
M 19.90118 2 (196.06, 110.21, 0.00), (99.58, 184.58), 11.48
